<?xml version="1.0" encoding="UTF-8"?>

<!-- generated on 2026-01-10T20:48:53.665410+05:45 by Eclipse SUMO sumo 1.25.0
<sumoConfiguration xmlns:xsi="http://www.w3.org/2001/XMLSchema-instance" xsi:noNamespaceSchemaLocation="http://sumo.dlr.de/xsd/sumoConfiguration.xsd">

    <input>
        <net-file value="C:\Users\donsa\Sumo\2026-01-10-20-48-35\osm.net.xml.gz"/>
        <route-files value="C:\Users\donsa\Sumo\2026-01-10-20-48-35\trips.trips.xml"/>
        <additional-files value="C:\Users\donsa\Sumo\2026-01-10-20-48-35\osm_stops.add.xml"/>
    </input>

    <output>
        <vehroute-output value="C:\Users\donsa\Sumo\2026-01-10-20-48-35\vehroutes.xml"/>
        <stop-output value="C:\Users\donsa\Sumo\2026-01-10-20-48-35\stopinfos.xml"/>
    </output>

    <time>
        <begin value="0.0"/>
    </time>

    <processing>
        <ignore-route-errors value="true"/>
        <time-to-teleport.disconnected value="0"/>
    </processing>

    <routing>
        <device.rerouting.adaptation-interval value="0"/>
    </routing>

    <report>
        <aggregate-warnings value="5"/>
        <error-log value="C:\Users\donsa\Sumo\2026-01-10-20-48-35\trips.trips.xml.errorlog"/>
        <no-step-log value="true"/>
    </report>

</sumoConfiguration>
-->

<routes xmlns:xsi="http://www.w3.org/2001/XMLSchema-instance" xsi:noNamespaceSchemaLocation="http://sumo.dlr.de/xsd/routes_file.xsd">
    <vehicle id="2_bus_5:1" type="pt_bus" depart="17.00" departLane="0" arrival="101.00">
        <route edges="171203194#0 171203194#1 351926855#0 351926855#1 351926855#2 351926855#3 171603744#0 171603744#1"/>
        <stop busStop="1274184084" duration="30.00"/>
    </vehicle>

    <vehicle id="1_bus_5:0" type="pt_bus" depart="15.00" departLane="0" arrival="134.00">
        <route edges="-693606876 4825630#0 4825630#1 672194957 -28543722#1 -28543722#0 -172387565#3 -172387565#2 -172387565#1 -172387565#0 753805285 172387589#0 172387589#1 172387589#3 -224839048#1 -224839048#0"/>
        <stop busStop="-943246313" duration="30.00"/>
    </vehicle>

    <vehicle id="7_bus_5:4" type="pt_bus" depart="165.00" departLane="0" arrival="236.00">
        <route edges="351926855#0 351926855#1 351926855#2 351926855#3 171603744#0 171603744#1"/>
        <stop busStop="1274184084" duration="30.00"/>
    </vehicle>

    <vehicle id="3_bus_5:2" type="pt_bus" depart="52.00" departLane="1" arrival="269.00">
        <route edges="-351926855#3 1116869264 -344321403#5 -111984903#7 -111984903#6 -111984903#5 -111984903#4 -111984903#3 -111984903#1 -111984903#0 257759242#6 257759242#7 257759242#8 257759242#9 220025931 -171215507 -28579443 -550489466#1 -550489466#0 550489464#4 550489464#5 169442477#0 169442477#1 169442477#2 169442477#3 753805283#0 672195635#0 672195635#1 -4840283#1 -4840283#0 -224839048#1 -224839048#0"/>
    </vehicle>

    <vehicle id="0_bus_2:0" type="pt_bus" depart="15.00" departLane="1" arrival="286.00">
        <route edges="4840264#0 4840264#1 4840264#2 4840264#3 4840264#4 4840264#5 173980141 111965835 -120430418#7 -120430418#6 -120430418#5 -120430418#3 -120430418#2 -120430418#1 -120430418#0 -279756910#1 -279756910#0 -1192329569 -232516700 -61164307#10 -61164307#9 -61164307#8 -61164307#7 -61164307#5 -61164307#4 -61164307#2 -61164307#1 -61164307#0 301607092 -891858757 891858756#0 891858756#1 -232661480#6 -232661480#5 -232661480#3 -232661480#2 -232661480#1 -232661480#0 120031048 -171215514 -4840054#1 -4840054#0 -229195912#0"/>
        <stop busStop="1490234323" duration="30.00"/>
        <stop busStop="1279198122" duration="30.00"/>
    </vehicle>

    <vehicle id="8_bus_7:0" type="pt_bus" depart="253.00" departLane="0" arrival="290.00">
        <route edges="351926855#2"/>
        <stop busStop="1274184084" duration="30.00"/>
    </vehicle>

    <vehicle id="6_bus_5:3" type="pt_bus" depart="134.00" departLane="1" arrival="309.00">
        <route edges="224839048#0 224839048#1 4840283#0 4840283#1 4840283#2 4840283#3 753805281#0 753805281#1 28579337#0 28579337#1 28579337#2 28579337#3 28579337#4 28579337#5 28579337#6 550489464#2 550489464#3 550489466#0 550489466#1 28579443 171215507 -171603746 -693606876"/>
        <stop busStop="-943246313" duration="30.00"/>
    </vehicle>

    <vehicle id="4_bus_Nepal_Yatayat:0" type="pt_bus" depart="119.00" departLane="0" arrival="355.00">
        <route edges="232095621 696973898#0 696973898#1 691745190#1 1199351810#0 1199351810#1 344347496#0 344347496#1 671888452 229195912#0 4840054#0 4840054#1 171215514 172385216#0 172385216#1 -4840288#1 -4840288#0 28598634 172387586#0 172387586#1 172387586#2"/>
        <stop busStop="31148993" duration="30.00"/>
    </vehicle>

    <vehicle id="9_bus_11:0" type="pt_bus" depart="303.00" departLane="0" arrival="385.00">
        <route edges="171203194#0 171203194#1 351926855#0 351926855#1 351926855#2 351926855#3 171603744#0 171603744#1"/>
        <stop busStop="1274184084" duration="30.00"/>
    </vehicle>

    <vehicle id="11_bus_12:0" type="pt_bus" depart="383.00" departLane="0" arrival="467.00">
        <route edges="171203194#0 171203194#1 351926855#0 351926855#1 351926855#2 351926855#3 171603744#0 171603744#1"/>
        <stop busStop="1274184084" duration="30.00"/>
    </vehicle>

    <vehicle id="12_bus_Changu-Ratnapark:0" type="pt_bus" depart="389.00" departLane="2" arrival="475.00">
        <route edges="1126610601 231414548 257759242#0 257759242#2 257759242#3 257759242#4 257759242#5 257759242#6 257759242#7 257759242#8 257759242#9"/>
        <stop busStop="2291478689" duration="30.00"/>
    </vehicle>

    <vehicle id="10_bus_Chyamasingh_to_Ratnapark:0" type="pt_bus" depart="326.00" departLane="0" arrival="560.00">
        <route edges="172129845 231194709 172387593#0 172387593#1 172387593#2 172387597#0 172387597#1 172387590#1 172387590#2 172387581 693606876 171603746 171203194#0 171203194#1 351926855#0 351926855#1 351926855#2 351926855#3"/>
        <stop busStop="2396022575" duration="30.00"/>
        <stop busStop="31232256" duration="30.00"/>
        <stop busStop="943246313" duration="30.00"/>
    </vehicle>

    <vehicle id="14_bus_Lagankhel_-_Naya_Buspark_(sajha):0" type="pt_bus" depart="441.00" departLane="0" arrival="610.00">
        <route edges="172129845 231194709 172387593#0 172387593#1 172387593#2 169191890 172387590#1 172387590#2 172387581 4825630#0 4825630#1 672194957 -28543722#1 -28543722#0 -172387565#3 -172387565#2 -172387565#1 -172387565#0 753805285 172387589#0 172387589#1 172387589#3 -224839048#1 -224839048#0"/>
        <stop busStop="1803547435" duration="30.00"/>
    </vehicle>

    <vehicle id="15_bus_Nepal_Yatayat:1" type="pt_bus" depart="535.00" departLane="1" arrival="733.00">
        <route edges="-28598645 -172385223#1 -172385223#0 -196281733#1 1032703597#0 1032703597#1 196281724#1 196281724#2 196281724#3 196281724#4 602091965#0 224839047 195254871#0 195254871#1 195254871#2 195254871#3 -172385216#1 -172385216#0 -171215514 -4840054#1 -4840054#0 -229195912#0"/>
        <stop busStop="-31148993" duration="30.00"/>
    </vehicle>

    <vehicle id="5_bus_26:0" type="pt_bus" depart="131.00" departLane="0" arrival="836.00">
        <route edges="172129845 231194709 172387593#0 172387593#1 172387593#2 172387597#0 172387597#1 172387590#1 172387590#2 172387581 4825630#0 4825630#1 172387564 4840092 176144614#0 176144614#1 176144614#2 111984925#0 111984925#1 550489464#5 169442477#0 169442477#1 169442477#2 169442477#3 753805283#0 753805283#1 165226102#0 165226102#1 165226102#2 753805280#1 753805280#2 753805280#3 28598634 172387586#0 172387586#1 172387586#2 172385224#0 172385224#1 172385224#2 172385224#4 172385224#5 172385224#6 172385224#7 172385224#8 432536757 196281733#0 196281733#1 172385223#0 172385223#1 28598645 -28598645 -172385223#1 -172385223#0 -196281733#1 1032703597#0 1032703597#1 196281724#1 196281724#2 196281724#3 196281724#4 602091965#0 224839047 195254871#0 195254871#1 195254871#2 195254871#3 -172385216#1 -172385216#0 -171215514 -4840054#1 -4840054#0 -4840057 -232516697#1 -567661914#3 -567661914#2 -567661914#1 -567661914#0 1420153231#1 232516698 171215507 -171603746 -693606876 218316959#1 -181388107 -80913265#3 -80913265#2 -80913265#1 172387581 4825630#0 4825630#1 672194957 -28543722#1 -28543722#0 -172387565#3 -172387565#2 -172387565#1 -172387565#0 753805285 172387589#0 172387589#1 172387589#3 -224839048#1 -224839048#0"/>
        <stop busStop="-296319786" duration="30.00"/>
        <stop busStop="31232256" duration="30.00"/>
    </vehicle>

    <vehicle id="13_bus_Gothatar-Purano_Buspark:0" type="pt_bus" depart="406.00" departLane="0" arrival="1116.00">
        <route edges="171203194#0 171203194#1 351926855#0 351926855#1 351926855#2 1116869264 -344321403#5 -344321403#4 -344321403#2 -180209910#6 -180209910#5 -180209910#4 -180209910#3 -180209910#2 -180209910#1 -180209910#0 -257759242#0 -231414548 -1126610601 671888452 229195912#0 1200990066 171227893 169336486#0 -172333275#4 -172333275#2 -172333275#1 -172333275#0 172333286#3 179147289#0 649070248#1 649070248#2 126253284 508291596 126253278#2 -341884382#0 -508291611 -508291612 -508291613#2 -508291613#1 -508291613#0 -126253248 -111965821#5 111965821#5 120430420#0 120430420#1 120430420#2 120430420#3 120430420#4 120430420#6 120430420#7 120430420#8 120430420#9 28598668#0 201227516 682063061#3 111984897#0 111984897#1 111984897#2 111984897#3 -126253244#1 -126253244#0 112783312#2 -421268350 -508291612 -508291613#2 -508291613#1 -508291613#0 -126253248 -111965821#5 -111965821#4 -111965821#3 -111965821#2 -111965821#1 -111965821#0 -111965837 -121782640#7 -121782640#6 -121782640#4 -121782640#3 -121782640#1 -121782640#0 -232104796"/>
        <stop busStop="31148727" duration="30.00"/>
        <stop busStop="-1281218812" duration="30.00"/>
        <stop busStop="31148719" duration="30.00"/>
        <stop busStop="-31150643" duration="30.00"/>
    </vehicle>

</routes>
