<?xml version="1.0" encoding="UTF-8"?>

<!-- generated on 2026-01-10T20:51:28.536291+05:45 by Eclipse SUMO GUI 1.25.0
<sumoConfiguration xmlns:xsi="http://www.w3.org/2001/XMLSchema-instance" xsi:noNamespaceSchemaLocation="http://sumo.dlr.de/xsd/sumoConfiguration.xsd">

    <input>
        <net-file value="C:\Users\donsa\Sumo\2026-01-10-20-48-35\osm.net.xml.gz"/>
        <route-files value="C:\Users\donsa\Sumo\2026-01-10-20-48-35\osm_pt.rou.xml,C:\Users\donsa\Sumo\2026-01-10-20-48-35\osm.bicycle.trips.xml,C:\Users\donsa\Sumo\2026-01-10-20-48-35\osm.bus.trips.xml,C:\Users\donsa\Sumo\2026-01-10-20-48-35\osm.motorcycle.trips.xml,C:\Users\donsa\Sumo\2026-01-10-20-48-35\osm.passenger.trips.xml,C:\Users\donsa\Sumo\2026-01-10-20-48-35\osm.pedestrian.rou.xml,C:\Users\donsa\Sumo\2026-01-10-20-48-35\osm.truck.trips.xml"/>
        <additional-files value="C:\Users\donsa\Sumo\2026-01-10-20-48-35\osm.poly.xml.gz,C:\Users\donsa\Sumo\2026-01-10-20-48-35\osm_stops.add.xml,C:\Users\donsa\Sumo\2026-01-10-20-48-35\output.add.xml"/>
    </input>

    <output>
        <tripinfo-output value="C:\Users\donsa\Sumo\2026-01-10-20-48-35\tripinfos.xml"/>
        <stop-output value="C:\Users\donsa\Sumo\2026-01-10-20-48-35\stopinfos.xml"/>
        <statistic-output value="C:\Users\donsa\Sumo\2026-01-10-20-48-35\stats.xml"/>
    </output>

    <processing>
        <ignore-route-errors value="true"/>
        <tls.actuated.jam-threshold value="30"/>
    </processing>

    <routing>
        <device.rerouting.adaptation-steps value="18"/>
        <device.rerouting.adaptation-interval value="10"/>
    </routing>

    <report>
        <verbose value="true"/>
        <duration-log.statistics value="true"/>
        <no-step-log value="true"/>
    </report>

    <gui_only>
        <gui-settings-file value="C:\Users\donsa\Sumo\2026-01-10-20-48-35\osm.view.xml"/>
    </gui_only>

</sumoConfiguration>
-->

<meandata xmlns:xsi="http://www.w3.org/2001/XMLSchema-instance" xsi:noNamespaceSchemaLocation="http://sumo.dlr.de/xsd/meandata_file.xsd">
    <interval begin="0.00" end="681.00" id="wizard_example">
        <edge id="-1004854746" sampledSeconds="10.67" traveltime="3.25" overlapTraveltime="3.55" density="0.36" overlapDensity="0.39" laneDensity="0.36" occupancy="0.13" waitingTime="0.00" timeLoss="1.38" speed="12.26" speedRelative="0.88" departed="0" arrived="0" entered="3" left="3" laneChangedFrom="0" laneChangedTo="0" flow="15.91"/>
        <edge id="-1026711284" sampledSeconds="11.57" traveltime="3.88" overlapTraveltime="4.51" density="0.70" overlapDensity="0.84" laneDensity="0.70" occupancy="0.24" waitingTime="0.00" timeLoss="2.09" speed="5.22" speedRelative="0.38" departed="3" arrived="0" entered="0" left="3" laneChangedFrom="0" laneChangedTo="0" flow="13.11"/>
        <edge id="-1026933661" sampledSeconds="0.00" departed="0" arrived="0" entered="0" left="0" laneChangedFrom="0" laneChangedTo="0"/>
        <edge id="-1028603276" sampledSeconds="0.00" departed="0" arrived="0" entered="0" left="0" laneChangedFrom="0" laneChangedTo="0"/>
        <edge id="-1028605870" sampledSeconds="10.49" traveltime="10.20" overlapTraveltime="10.49" density="0.26" overlapDensity="0.27" laneDensity="0.26" occupancy="0.04" waitingTime="0.00" timeLoss="0.34" speed="5.60" speedRelative="1.01" departed="0" arrived="0" entered="1" left="1" laneChangedFrom="0" laneChangedTo="0" flow="5.29"/>
        <edge id="-1029933288" sampledSeconds="0.00" departed="0" arrived="0" entered="0" left="0" laneChangedFrom="0" laneChangedTo="0"/>
        <edge id="-1029933289" sampledSeconds="0.00" departed="0" arrived="0" entered="0" left="0" laneChangedFrom="0" laneChangedTo="0"/>
        <edge id="-1029933290#0" sampledSeconds="0.00" departed="0" arrived="0" entered="0" left="0" laneChangedFrom="0" laneChangedTo="0"/>
        <edge id="-1029933290#1" sampledSeconds="0.00" departed="0" arrived="0" entered="0" left="0" laneChangedFrom="0" laneChangedTo="0"/>
        <edge id="-1029933291" sampledSeconds="0.00" departed="0" arrived="0" entered="0" left="0" laneChangedFrom="0" laneChangedTo="0"/>
        <edge id="-1029936500" sampledSeconds="23.23" traveltime="4.75" overlapTraveltime="5.81" density="4.16" overlapDensity="5.08" laneDensity="4.16" occupancy="0.72" waitingTime="4.00" timeLoss="16.85" speed="1.43" speedRelative="0.26" departed="0" arrived="0" entered="4" left="4" laneChangedFrom="0" laneChangedTo="0" flow="21.43"/>
        <edge id="-1032842997" sampledSeconds="0.00" departed="0" arrived="0" entered="0" left="0" laneChangedFrom="0" laneChangedTo="0"/>
        <edge id="-1032842998" sampledSeconds="8.12" traveltime="8.28" overlapTraveltime="8.64" density="0.42" overlapDensity="0.44" laneDensity="0.42" occupancy="0.07" waitingTime="0.00" timeLoss="2.54" speed="3.30" speedRelative="0.59" departed="1" arrived="0" entered="0" left="1" laneChangedFrom="0" laneChangedTo="0" flow="5.03"/>
        <edge id="-1032842999" sampledSeconds="5.73" traveltime="5.15" overlapTraveltime="5.73" density="0.36" overlapDensity="0.40" laneDensity="0.36" occupancy="0.06" waitingTime="0.00" timeLoss="0.57" speed="3.96" speedRelative="0.71" departed="0" arrived="0" entered="1" left="1" laneChangedFrom="0" laneChangedTo="0" flow="5.11"/>
        <edge id="-1039024082" sampledSeconds="24.30" traveltime="12.00" overlapTraveltime="12.68" density="1.34" overlapDensity="1.43" laneDensity="1.34" occupancy="0.30" waitingTime="0.00" timeLoss="7.15" speed="2.15" speedRelative="0.77" departed="1" arrived="0" entered="1" left="2" laneChangedFrom="0" laneChangedTo="0" flow="10.38"/>
        <edge id="-1039177260#0" sampledSeconds="67.49" traveltime="16.45" overlapTraveltime="16.81" density="0.83" overlapDensity="0.86" laneDensity="0.83" occupancy="0.18" waitingTime="0.00" timeLoss="6.01" speed="7.02" speedRelative="0.51" departed="0" arrived="0" entered="4" left="4" laneChangedFrom="0" laneChangedTo="0" flow="21.08"/>
        <edge id="-1039177260#1" sampledSeconds="24.45" traveltime="7.87" overlapTraveltime="8.11" density="0.53" overlapDensity="0.55" laneDensity="0.53" occupancy="0.13" waitingTime="0.00" timeLoss="3.08" speed="8.36" speedRelative="0.60" departed="0" arrived="0" entered="3" left="3" laneChangedFrom="0" laneChangedTo="0" flow="16.00"/>
        <edge id="-1042964628" sampledSeconds="2.79" traveltime="2.59" overlapTraveltime="2.79" density="0.15" overlapDensity="0.16" laneDensity="0.15" occupancy="0.03" waitingTime="0.00" timeLoss="0.75" speed="9.89" speedRelative="0.71" departed="0" arrived="1" entered="1" left="0" laneChangedFrom="0" laneChangedTo="0" flow="5.32"/>
        <edge id="-1049908412" sampledSeconds="0.00" departed="0" arrived="0" entered="0" left="0" laneChangedFrom="0" laneChangedTo="0"/>
        <edge id="-105069931#0" sampledSeconds="17.57" traveltime="5.33" overlapTraveltime="6.59" density="0.55" overlapDensity="0.68" laneDensity="0.55" occupancy="0.59" waitingTime="0.00" timeLoss="7.16" speed="7.29" speedRelative="0.52" departed="1" arrived="0" entered="2" left="3" laneChangedFrom="0" laneChangedTo="0" flow="14.49"/>
        <edge id="-105069931#1" sampledSeconds="12.70" traveltime="5.89" overlapTraveltime="6.53" density="0.30" overlapDensity="0.33" laneDensity="0.30" occupancy="0.21" waitingTime="0.00" timeLoss="3.81" speed="9.89" speedRelative="0.71" departed="1" arrived="0" entered="1" left="2" laneChangedFrom="0" laneChangedTo="0" flow="10.61"/>
        <edge id="-1052025081" sampledSeconds="0.00" departed="0" arrived="0" entered="0" left="0" laneChangedFrom="0" laneChangedTo="0"/>
        <edge id="-1091204051" sampledSeconds="0.00" departed="0" arrived="0" entered="0" left="0" laneChangedFrom="0" laneChangedTo="0"/>
        <edge id="-1091204052" sampledSeconds="0.00" departed="0" arrived="0" entered="0" left="0" laneChangedFrom="0" laneChangedTo="0"/>
        <edge id="-1091204053" sampledSeconds="0.00" departed="0" arrived="0" entered="0" left="0" laneChangedFrom="0" laneChangedTo="0"/>
        <edge id="-1092329492" sampledSeconds="0.00" departed="0" arrived="0" entered="0" left="0" laneChangedFrom="0" laneChangedTo="0"/>
        <edge id="-1098795863#0" sampledSeconds="0.00" departed="0" arrived="0" entered="0" left="0" laneChangedFrom="0" laneChangedTo="0"/>
        <edge id="-1098795864" sampledSeconds="0.00" departed="0" arrived="0" entered="0" left="0" laneChangedFrom="0" laneChangedTo="0"/>
        <edge id="-1098795865" sampledSeconds="0.00" departed="0" arrived="0" entered="0" left="0" laneChangedFrom="0" laneChangedTo="0"/>
        <edge id="-1098795866#0" sampledSeconds="6.30" traveltime="5.99" overlapTraveltime="6.30" density="0.30" overlapDensity="0.31" laneDensity="0.30" occupancy="0.05" waitingTime="0.00" timeLoss="0.36" speed="4.93" speedRelative="0.89" departed="0" arrived="1" entered="1" left="0" laneChangedFrom="0" laneChangedTo="0" flow="5.30"/>
        <edge id="-1098795866#1" sampledSeconds="5.97" traveltime="5.63" overlapTraveltime="5.97" density="0.31" overlapDensity="0.33" laneDensity="0.31" occupancy="0.05" waitingTime="0.00" timeLoss="0.61" speed="4.70" speedRelative="0.84" departed="0" arrived="0" entered="1" left="1" laneChangedFrom="0" laneChangedTo="0" flow="5.28"/>
        <edge id="-1100816337" sampledSeconds="0.00" departed="0" arrived="0" entered="0" left="0" laneChangedFrom="0" laneChangedTo="0"/>
        <edge id="-1111962988" sampledSeconds="6.15" traveltime="2.91" overlapTraveltime="3.08" density="0.27" overlapDensity="0.28" laneDensity="0.27" occupancy="0.06" waitingTime="0.00" timeLoss="1.35" speed="11.12" speedRelative="0.80" departed="0" arrived="2" entered="2" left="0" laneChangedFrom="0" laneChangedTo="0" flow="10.67"/>
        <edge id="-1111962989#0" sampledSeconds="4.89" traveltime="4.74" overlapTraveltime="4.89" density="0.10" overlapDensity="0.10" laneDensity="0.10" occupancy="0.02" waitingTime="0.00" timeLoss="0.49" speed="14.71" speedRelative="1.06" departed="0" arrived="1" entered="1" left="0" laneChangedFrom="0" laneChangedTo="0" flow="5.28"/>
        <edge id="-1111966164" sampledSeconds="0.00" departed="0" arrived="0" entered="0" left="0" laneChangedFrom="0" laneChangedTo="0"/>
        <edge id="-1116480108" sampledSeconds="0.00" departed="0" arrived="0" entered="0" left="0" laneChangedFrom="0" laneChangedTo="0"/>
        <edge id="-1116480109" sampledSeconds="5.44" traveltime="5.32" overlapTraveltime="5.62" density="0.11" overlapDensity="0.12" laneDensity="0.11" occupancy="0.02" waitingTime="0.00" timeLoss="0.74" speed="12.73" speedRelative="0.92" departed="1" arrived="0" entered="0" left="1" laneChangedFrom="0" laneChangedTo="0" flow="4.99"/>
        <edge id="-1116480111" sampledSeconds="0.00" departed="0" arrived="0" entered="0" left="0" laneChangedFrom="0" laneChangedTo="0"/>
        <edge id="-1117040516" sampledSeconds="12.35" traveltime="11.96" overlapTraveltime="12.35" density="0.55" overlapDensity="0.57" laneDensity="0.55" occupancy="0.09" waitingTime="0.00" timeLoss="1.70" speed="2.72" speedRelative="0.98" departed="0" arrived="0" entered="1" left="1" laneChangedFrom="0" laneChangedTo="0" flow="5.37"/>
        <edge id="-111823085#0" sampledSeconds="31.27" traveltime="15.56" overlapTraveltime="16.09" density="1.15" overlapDensity="1.19" laneDensity="1.15" occupancy="0.22" waitingTime="0.00" timeLoss="5.69" speed="2.52" speedRelative="0.91" departed="1" arrived="0" entered="1" left="2" laneChangedFrom="0" laneChangedTo="0" flow="10.41"/>
        <edge id="-111823085#1" sampledSeconds="0.00" departed="0" arrived="0" entered="0" left="0" laneChangedFrom="0" laneChangedTo="0"/>
        <edge id="-111823085#2" sampledSeconds="38.93" traveltime="50.48" overlapTraveltime="51.59" density="0.57" overlapDensity="0.57" laneDensity="0.57" occupancy="0.12" waitingTime="0.00" timeLoss="8.80" speed="1.99" speedRelative="0.72" departed="0" arrived="0" entered="1" left="0" laneChangedFrom="0" laneChangedTo="0" flow="4.08"/>
        <edge id="-111823096#0" sampledSeconds="1.65" traveltime="1.66" overlapTraveltime="1.89" density="0.15" overlapDensity="0.15" laneDensity="0.15" occupancy="0.03" waitingTime="0.00" timeLoss="0.61" speed="9.55" speedRelative="0.69" departed="0" arrived="1" entered="1" left="0" laneChangedFrom="0" laneChangedTo="0" flow="5.26"/>
        <edge id="-111823096#1" sampledSeconds="0.81" traveltime="0.47" overlapTraveltime="0.81" density="0.23" overlapDensity="0.40" laneDensity="0.23" occupancy="0.05" waitingTime="0.00" timeLoss="0.34" speed="6.35" speedRelative="0.46" departed="0" arrived="0" entered="1" left="1" laneChangedFrom="0" laneChangedTo="0" flow="5.32"/>
        <edge id="-111823096#2" sampledSeconds="5.80" traveltime="5.64" overlapTraveltime="5.80" density="0.11" overlapDensity="0.11" laneDensity="0.11" occupancy="0.02" waitingTime="0.00" timeLoss="0.53" speed="13.73" speedRelative="0.99" departed="0" arrived="0" entered="1" left="1" laneChangedFrom="0" laneChangedTo="0" flow="5.29"/>
        <edge id="-111823096#3" sampledSeconds="3.35" traveltime="3.19" overlapTraveltime="3.35" density="0.11" overlapDensity="0.11" laneDensity="0.11" occupancy="0.02" waitingTime="0.00" timeLoss="0.36" speed="13.47" speedRelative="0.97" departed="0" arrived="0" entered="1" left="1" laneChangedFrom="0" laneChangedTo="0" flow="5.29"/>
        <edge id="-111823096#5" sampledSeconds="15.12" traveltime="2.10" overlapTraveltime="2.61" density="0.83" overlapDensity="0.99" laneDensity="0.83" occupancy="0.41" waitingTime="0.00" timeLoss="3.62" speed="10.71" speedRelative="0.77" departed="0" arrived="0" entered="6" left="6" laneChangedFrom="0" laneChangedTo="0" flow="31.92"/>
        <edge id="-111823096#6" sampledSeconds="12.38" traveltime="1.63" overlapTraveltime="2.41" density="1.05" overlapDensity="1.48" laneDensity="1.05" occupancy="0.63" waitingTime="0.00" timeLoss="5.68" speed="7.63" speedRelative="0.55" departed="1" arrived="0" entered="5" left="6" laneChangedFrom="0" laneChangedTo="0" flow="28.94"/>
        <edge id="-111823096#7" sampledSeconds="33.04" traveltime="16.44" overlapTraveltime="16.61" density="0.24" overlapDensity="0.24" laneDensity="0.24" occupancy="0.05" waitingTime="0.00" timeLoss="5.06" speed="12.34" speedRelative="0.89" departed="1" arrived="0" entered="1" left="2" laneChangedFrom="0" laneChangedTo="0" flow="10.52"/>
        <edge id="-111823096#8" sampledSeconds="10.29" traveltime="2.11" overlapTraveltime="2.63" density="1.26" overlapDensity="1.61" laneDensity="1.26" occupancy="0.32" waitingTime="0.00" timeLoss="4.78" speed="4.56" speedRelative="0.33" departed="1" arrived="0" entered="3" left="4" laneChangedFrom="0" laneChangedTo="0" flow="20.68"/>
        <edge id="-111845389#0" sampledSeconds="0.00" departed="0" arrived="0" entered="0" left="0" laneChangedFrom="0" laneChangedTo="0"/>
        <edge id="-111845389#1" sampledSeconds="13.38" traveltime="6.27" overlapTraveltime="6.69" density="0.76" overlapDensity="0.81" laneDensity="0.76" occupancy="0.17" waitingTime="0.00" timeLoss="4.04" speed="3.94" speedRelative="0.71" departed="0" arrived="1" entered="2" left="1" laneChangedFrom="0" laneChangedTo="0" flow="10.82"/>
        <edge id="-111965821#0" sampledSeconds="17.48" traveltime="0.03" overlapTraveltime="0.69" density="7.32" overlapDensity="128.38" laneDensity="7.32" occupancy="2.43" waitingTime="0.00" timeLoss="8.38" speed="7.14" speedRelative="0.51" departed="0" arrived="0" entered="33" left="33" laneChangedFrom="0" laneChangedTo="0" flow="188.17"/>
        <edge id="-111965821#1" sampledSeconds="279.87" traveltime="11.08" overlapTraveltime="11.56" density="3.90" overlapDensity="4.05" laneDensity="3.90" occupancy="1.65" waitingTime="0.00" timeLoss="81.80" speed="9.15" speedRelative="0.66" departed="1" arrived="2" entered="24" left="22" laneChangedFrom="0" laneChangedTo="0" flow="128.53"/>
        <edge id="-111965821#2" sampledSeconds="49.63" traveltime="1.64" overlapTraveltime="2.26" density="3.77" overlapDensity="5.03" laneDensity="3.77" occupancy="1.62" waitingTime="0.00" timeLoss="15.12" speed="8.37" speedRelative="0.60" departed="0" arrived="0" entered="23" left="22" laneChangedFrom="0" laneChangedTo="0" flow="113.75"/>
        <edge id="-111965821#3" sampledSeconds="60.74" traveltime="1.95" overlapTraveltime="2.37" density="3.75" overlapDensity="4.50" laneDensity="3.75" occupancy="1.41" waitingTime="0.00" timeLoss="11.53" speed="10.06" speedRelative="0.72" departed="0" arrived="1" entered="26" left="25" laneChangedFrom="0" laneChangedTo="0" flow="135.70"/>
        <edge id="-111965821#4" sampledSeconds="232.66" traveltime="8.20" overlapTraveltime="8.66" density="3.88" overlapDensity="4.08" laneDensity="3.88" occupancy="1.68" waitingTime="0.00" timeLoss="42.67" speed="10.19" speedRelative="0.73" departed="0" arrived="0" entered="27" left="27" laneChangedFrom="0" laneChangedTo="0" flow="142.45"/>
        <edge id="-111965821#5" sampledSeconds="49.79" traveltime="1.25" overlapTraveltime="1.81" density="5.04" overlapDensity="6.96" laneDensity="5.04" occupancy="2.08" waitingTime="0.00" timeLoss="16.64" speed="8.41" speedRelative="0.61" departed="1" arrived="0" entered="28" left="29" laneChangedFrom="0" laneChangedTo="0" flow="152.44"/>
        <edge id="-111965835" sampledSeconds="147.46" traveltime="4.35" overlapTraveltime="5.10" density="3.74" overlapDensity="4.38" laneDensity="3.74" occupancy="1.53" waitingTime="6.00" timeLoss="32.08" speed="10.51" speedRelative="0.76" departed="0" arrived="0" entered="29" left="29" laneChangedFrom="0" laneChangedTo="0" flow="141.66"/>
        <edge id="-111965837" sampledSeconds="238.56" traveltime="6.46" overlapTraveltime="7.28" density="6.70" overlapDensity="7.49" laneDensity="6.70" occupancy="2.54" waitingTime="29.00" timeLoss="107.86" speed="6.96" speedRelative="0.50" departed="0" arrived="0" entered="33" left="33" laneChangedFrom="0" laneChangedTo="0" flow="167.91"/>
        <edge id="-111967844#0" sampledSeconds="0.51" traveltime="0.18" overlapTraveltime="0.64" density="0.14" overlapDensity="0.39" laneDensity="0.14" occupancy="0.06" waitingTime="0.00" timeLoss="0.03" speed="10.78" speedRelative="0.78" departed="0" arrived="1" entered="1" left="0" laneChangedFrom="0" laneChangedTo="0" flow="5.29"/>
        <edge id="-111967844#1" sampledSeconds="5.14" traveltime="4.70" overlapTraveltime="5.14" density="0.13" overlapDensity="0.15" laneDensity="0.13" occupancy="0.07" waitingTime="0.00" timeLoss="0.23" speed="11.03" speedRelative="0.79" departed="0" arrived="0" entered="1" left="1" laneChangedFrom="0" laneChangedTo="0" flow="5.30"/>
        <edge id="-111967844#2" sampledSeconds="3.47" traveltime="3.01" overlapTraveltime="3.47" density="0.22" overlapDensity="0.25" laneDensity="0.22" occupancy="0.10" waitingTime="0.00" timeLoss="1.27" speed="7.32" speedRelative="0.53" departed="0" arrived="0" entered="1" left="1" laneChangedFrom="0" laneChangedTo="0" flow="5.71"/>
        <edge id="-111967848" sampledSeconds="62.08" traveltime="11.90" overlapTraveltime="12.57" density="0.68" overlapDensity="0.72" laneDensity="0.68" occupancy="0.40" waitingTime="0.00" timeLoss="14.20" speed="10.56" speedRelative="0.76" departed="1" arrived="0" entered="4" left="5" laneChangedFrom="0" laneChangedTo="0" flow="25.89"/>
        <edge id="-111984897#0" sampledSeconds="290.93" traveltime="17.78" overlapTraveltime="18.45" density="6.26" overlapDensity="6.56" laneDensity="6.26" occupancy="1.73" waitingTime="153.00" timeLoss="202.78" speed="3.68" speedRelative="0.27" departed="0" arrived="0" entered="16" left="15" laneChangedFrom="0" laneChangedTo="0" flow="83.02"/>
        <edge id="-111984897#1" sampledSeconds="90.90" traveltime="4.63" overlapTraveltime="5.06" density="2.56" overlapDensity="2.79" laneDensity="2.56" occupancy="0.88" waitingTime="0.00" timeLoss="18.30" speed="10.16" speedRelative="0.73" departed="0" arrived="1" entered="18" left="17" laneChangedFrom="0" laneChangedTo="0" flow="93.60"/>
        <edge id="-111984897#10" sampledSeconds="10.30" traveltime="10.30" overlapTraveltime="10.68" density="0.11" overlapDensity="0.11" laneDensity="0.11" occupancy="0.05" waitingTime="0.00" timeLoss="0.41" speed="13.44" speedRelative="0.97" departed="1" arrived="0" entered="0" left="1" laneChangedFrom="0" laneChangedTo="0" flow="5.09"/>
        <edge id="-111984897#2" sampledSeconds="52.60" traveltime="2.66" overlapTraveltime="2.94" density="2.41" overlapDensity="2.67" laneDensity="2.41" occupancy="0.79" waitingTime="0.00" timeLoss="7.55" speed="11.05" speedRelative="0.80" departed="1" arrived="0" entered="17" left="18" laneChangedFrom="0" laneChangedTo="0" flow="96.03"/>
        <edge id="-111984897#3" sampledSeconds="36.39" traveltime="1.84" overlapTraveltime="2.16" density="2.39" overlapDensity="2.79" laneDensity="2.39" occupancy="0.78" waitingTime="0.00" timeLoss="6.38" speed="10.52" speedRelative="0.76" departed="0" arrived="0" entered="17" left="17" laneChangedFrom="0" laneChangedTo="0" flow="90.59"/>
        <edge id="-111984897#5" sampledSeconds="91.37" traveltime="2.34" overlapTraveltime="3.53" density="9.51" overlapDensity="13.25" laneDensity="9.51" occupancy="5.10" waitingTime="13.00" timeLoss="53.36" speed="4.34" speedRelative="0.31" departed="0" arrived="0" entered="28" left="28" laneChangedFrom="0" laneChangedTo="0" flow="148.57"/>
        <edge id="-111984897#6" sampledSeconds="211.42" traveltime="6.53" overlapTraveltime="7.37" density="5.62" overlapDensity="6.28" laneDensity="5.62" occupancy="2.55" waitingTime="5.00" timeLoss="93.78" speed="7.34" speedRelative="0.53" departed="1" arrived="0" entered="28" left="29" laneChangedFrom="0" laneChangedTo="0" flow="148.57"/>
        <edge id="-111984897#7" sampledSeconds="11.18" traveltime="10.66" overlapTraveltime="11.18" density="0.14" overlapDensity="0.15" laneDensity="0.14" occupancy="0.03" waitingTime="0.00" timeLoss="3.05" speed="9.91" speedRelative="0.71" departed="0" arrived="0" entered="1" left="1" laneChangedFrom="0" laneChangedTo="0" flow="5.14"/>
        <edge id="-111984897#8" sampledSeconds="14.52" traveltime="2.80" overlapTraveltime="3.52" density="1.34" overlapDensity="1.73" laneDensity="1.34" occupancy="0.39" waitingTime="2.00" timeLoss="6.32" speed="4.30" speedRelative="0.31" departed="0" arrived="0" entered="4" left="4" laneChangedFrom="0" laneChangedTo="0" flow="20.71"/>
        <edge id="-111984897#9" sampledSeconds="6.35" traveltime="2.73" overlapTraveltime="3.18" density="0.21" overlapDensity="0.25" laneDensity="0.21" occupancy="0.11" waitingTime="0.00" timeLoss="0.39" speed="13.45" speedRelative="0.97" departed="0" arrived="0" entered="2" left="2" laneChangedFrom="0" laneChangedTo="0" flow="10.31"/>
        <edge id="-111984901#0" sampledSeconds="46.60" traveltime="4.62" overlapTraveltime="5.13" density="1.50" overlapDensity="1.68" laneDensity="1.50" occupancy="0.65" waitingTime="0.00" timeLoss="10.41" speed="8.83" speedRelative="0.64" departed="0" arrived="0" entered="9" left="9" laneChangedFrom="0" laneChangedTo="0" flow="47.63"/>
        <edge id="-111984901#1" sampledSeconds="10.17" traveltime="3.09" overlapTraveltime="3.39" density="0.42" overlapDensity="0.46" laneDensity="0.42" occupancy="0.09" waitingTime="0.00" timeLoss="2.18" speed="10.29" speedRelative="0.74" departed="0" arrived="0" entered="3" left="3" laneChangedFrom="0" laneChangedTo="0" flow="15.42"/>
        <edge id="-111984901#2" sampledSeconds="25.38" traveltime="6.19" overlapTraveltime="6.40" density="0.64" overlapDensity="0.67" laneDensity="0.64" occupancy="0.13" waitingTime="0.00" timeLoss="2.72" speed="9.06" speedRelative="0.65" departed="1" arrived="0" entered="3" left="4" laneChangedFrom="0" laneChangedTo="0" flow="20.98"/>
        <edge id="-111984901#3" sampledSeconds="11.80" traveltime="3.71" overlapTraveltime="3.92" density="0.52" overlapDensity="0.55" laneDensity="0.52" occupancy="0.10" waitingTime="0.00" timeLoss="1.12" speed="8.46" speedRelative="0.61" departed="0" arrived="0" entered="3" left="3" laneChangedFrom="0" laneChangedTo="0" flow="15.90"/>
        <edge id="-111984901#4" sampledSeconds="31.46" traveltime="10.27" overlapTraveltime="10.47" density="0.53" overlapDensity="0.54" laneDensity="0.53" occupancy="0.10" waitingTime="0.00" timeLoss="3.10" speed="8.41" speedRelative="0.61" departed="0" arrived="0" entered="3" left="3" laneChangedFrom="0" laneChangedTo="0" flow="15.89"/>
        <edge id="-111984903#0" sampledSeconds="84.29" traveltime="7.54" overlapTraveltime="8.40" density="1.62" overlapDensity="1.82" laneDensity="1.62" occupancy="0.81" waitingTime="0.00" timeLoss="14.45" speed="8.71" speedRelative="0.63" departed="0" arrived="0" entered="10" left="10" laneChangedFrom="0" laneChangedTo="0" flow="50.97"/>
        <edge id="-111984903#1" sampledSeconds="82.56" traveltime="5.94" overlapTraveltime="6.24" density="2.40" overlapDensity="2.57" laneDensity="2.40" occupancy="0.79" waitingTime="0.00" timeLoss="7.85" speed="8.14" speedRelative="0.59" departed="0" arrived="0" entered="13" left="13" laneChangedFrom="0" laneChangedTo="0" flow="70.32"/>
        <edge id="-111984903#3" sampledSeconds="23.73" traveltime="1.08" overlapTraveltime="1.71" density="2.90" overlapDensity="4.64" laneDensity="2.90" occupancy="1.15" waitingTime="0.00" timeLoss="5.36" speed="6.86" speedRelative="0.49" departed="1" arrived="0" entered="13" left="14" laneChangedFrom="0" laneChangedTo="0" flow="71.76"/>
        <edge id="-111984903#4" sampledSeconds="35.33" traveltime="2.16" overlapTraveltime="2.54" density="2.55" overlapDensity="3.04" laneDensity="2.55" occupancy="0.92" waitingTime="0.00" timeLoss="4.35" speed="8.31" speedRelative="0.60" departed="1" arrived="1" entered="13" left="13" laneChangedFrom="0" laneChangedTo="0" flow="76.35"/>
        <edge id="-111984903#5" sampledSeconds="39.68" traveltime="2.65" overlapTraveltime="2.98" density="2.28" overlapDensity="2.63" laneDensity="2.28" occupancy="0.77" waitingTime="0.00" timeLoss="2.19" speed="8.72" speedRelative="0.63" departed="0" arrived="0" entered="13" left="13" laneChangedFrom="0" laneChangedTo="0" flow="71.61"/>
        <edge id="-111984903#6" sampledSeconds="22.72" traveltime="1.34" overlapTraveltime="1.72" density="2.29" overlapDensity="2.98" laneDensity="2.29" occupancy="0.78" waitingTime="0.00" timeLoss="1.33" speed="8.94" speedRelative="0.64" departed="0" arrived="0" entered="13" left="13" laneChangedFrom="0" laneChangedTo="0" flow="73.72"/>
        <edge id="-111984903#7" sampledSeconds="94.44" traveltime="6.87" overlapTraveltime="7.22" density="2.60" overlapDensity="2.75" laneDensity="2.60" occupancy="0.96" waitingTime="0.00" timeLoss="15.99" speed="7.53" speedRelative="0.54" departed="1" arrived="0" entered="12" left="13" laneChangedFrom="0" laneChangedTo="0" flow="70.33"/>
        <edge id="-111984925#0" sampledSeconds="0.00" departed="0" arrived="0" entered="0" left="0" laneChangedFrom="0" laneChangedTo="0"/>
        <edge id="-111984925#1" sampledSeconds="0.00" departed="0" arrived="0" entered="0" left="0" laneChangedFrom="0" laneChangedTo="0"/>
        <edge id="-1119868288" sampledSeconds="65.43" traveltime="4.23" overlapTraveltime="4.67" density="2.09" overlapDensity="2.31" laneDensity="2.09" occupancy="0.69" waitingTime="0.00" timeLoss="11.05" speed="9.63" speedRelative="0.69" departed="0" arrived="0" entered="14" left="14" laneChangedFrom="0" laneChangedTo="0" flow="72.37"/>
        <edge id="-112117065" sampledSeconds="19.50" traveltime="19.20" overlapTraveltime="19.50" density="0.28" overlapDensity="0.29" laneDensity="0.28" occupancy="0.05" waitingTime="0.00" timeLoss="0.93" speed="5.21" speedRelative="0.94" departed="0" arrived="0" entered="1" left="1" laneChangedFrom="0" laneChangedTo="0" flow="5.29"/>
        <edge id="-112117066" sampledSeconds="0.00" departed="0" arrived="0" entered="0" left="0" laneChangedFrom="0" laneChangedTo="0"/>
        <edge id="-112117466#0" sampledSeconds="266.42" traveltime="6.28" overlapTraveltime="7.94" density="19.18" overlapDensity="23.23" laneDensity="19.18" occupancy="11.33" waitingTime="91.00" timeLoss="202.45" speed="2.83" speedRelative="0.20" departed="0" arrived="2" entered="35" left="33" laneChangedFrom="0" laneChangedTo="0" flow="195.30"/>
        <edge id="-112117466#1" sampledSeconds="278.40" traveltime="7.40" overlapTraveltime="7.95" density="5.69" overlapDensity="6.12" laneDensity="5.69" occupancy="2.64" waitingTime="7.00" timeLoss="72.08" speed="8.98" speedRelative="0.65" departed="1" arrived="0" entered="34" left="35" laneChangedFrom="0" laneChangedTo="0" flow="184.00"/>
        <edge id="-112117466#2" sampledSeconds="26.67" traveltime="0.32" overlapTraveltime="0.85" density="5.34" overlapDensity="13.23" laneDensity="5.34" occupancy="2.34" waitingTime="0.00" timeLoss="5.86" speed="9.95" speedRelative="0.72" departed="0" arrived="0" entered="34" left="34" laneChangedFrom="0" laneChangedTo="0" flow="191.24"/>
        <edge id="-112117466#3" sampledSeconds="548.40" traveltime="16.36" overlapTraveltime="16.79" density="4.61" overlapDensity="4.74" laneDensity="4.61" occupancy="2.12" waitingTime="0.00" timeLoss="86.05" speed="10.40" speedRelative="0.75" departed="0" arrived="0" entered="34" left="32" laneChangedFrom="0" laneChangedTo="0" flow="172.51"/>
        <edge id="-112117466#5" sampledSeconds="99.36" traveltime="3.74" overlapTraveltime="4.16" density="3.40" overlapDensity="3.79" laneDensity="3.40" occupancy="1.60" waitingTime="0.00" timeLoss="21.18" speed="10.45" speedRelative="0.75" departed="2" arrived="1" entered="22" left="23" laneChangedFrom="0" laneChangedTo="0" flow="128.02"/>